
Host: HAL-9000

Timers On : Tue Nov 20 13:52:57 2018
Timers Off: Tue Nov 20 13:53:05 2018

Wall Time:        8.62 seconds


-----------------------------------------------------------

***********************************************************

Host: david-ThinkCentre-M73

Timers On : Tue Nov 20 16:36:27 2018
Timers Off: Tue Nov 20 16:36:38 2018

Wall Time:       10.95 seconds


-----------------------------------------------------------

***********************************************************

Host: david-ThinkCentre-M73

Timers On : Tue Nov 20 16:41:58 2018
Timers Off: Tue Nov 20 16:41:59 2018

Wall Time:        0.66 seconds


-----------------------------------------------------------

***********************************************************

Host: david-ThinkCentre-M73

Timers On : Tue Nov 20 16:42:07 2018
Timers Off: Tue Nov 20 16:42:08 2018

Wall Time:        0.66 seconds


-----------------------------------------------------------

***********************************************************

Host: david-ThinkCentre-M73

Timers On : Tue Nov 20 16:43:29 2018
Timers Off: Tue Nov 20 16:43:30 2018

Wall Time:        0.66 seconds


-----------------------------------------------------------

***********************************************************

Host: david-ThinkCentre-M73

Timers On : Tue Nov 20 16:43:53 2018
Timers Off: Tue Nov 20 16:43:53 2018

Wall Time:        0.65 seconds


-----------------------------------------------------------

***********************************************************

Host: david-ThinkCentre-M73

Timers On : Tue Nov 20 16:44:46 2018
Timers Off: Tue Nov 20 16:44:47 2018

Wall Time:        0.66 seconds


-----------------------------------------------------------

***********************************************************

Host: david-ThinkCentre-M73

Timers On : Tue Nov 20 16:48:44 2018
Timers Off: Tue Nov 20 16:53:04 2018

Wall Time:      260.37 seconds


-----------------------------------------------------------

***********************************************************

Host: multivac

Timers On : Wed Nov 21 00:09:42 2018
Timers Off: Wed Nov 21 00:09:57 2018

Wall Time:       14.41 seconds


-----------------------------------------------------------

***********************************************************

Host: HAL-9000

Timers On : Wed Nov 21 09:56:48 2018
Timers Off: Wed Nov 21 10:10:12 2018

Wall Time:      804.26 seconds


-----------------------------------------------------------

***********************************************************

Host: HAL-9000

Timers On : Wed Nov 21 10:51:25 2018
Timers Off: Wed Nov 21 11:06:36 2018

Wall Time:      910.99 seconds


-----------------------------------------------------------

***********************************************************

Host: HAL-9000

Timers On : Wed Nov 21 11:06:44 2018
Timers Off: Wed Nov 21 11:15:41 2018

Wall Time:      536.76 seconds


-----------------------------------------------------------

***********************************************************

Host: HAL-9000

Timers On : Wed Nov 21 11:15:51 2018
Timers Off: Wed Nov 21 11:17:26 2018

Wall Time:       95.38 seconds


-----------------------------------------------------------

***********************************************************

Host: HAL-9000

Timers On : Wed Nov 21 11:17:33 2018
Timers Off: Wed Nov 21 11:18:56 2018

Wall Time:       82.62 seconds


-----------------------------------------------------------

***********************************************************

Host: HAL-9000

Timers On : Wed Nov 21 11:19:15 2018
Timers Off: Wed Nov 21 11:19:30 2018

Wall Time:       14.91 seconds


-----------------------------------------------------------

***********************************************************

Host: HAL-9000

Timers On : Wed Nov 21 11:20:28 2018
Timers Off: Wed Nov 21 11:21:15 2018

Wall Time:       46.71 seconds


-----------------------------------------------------------

***********************************************************

Host: HAL-9000

Timers On : Wed Nov 21 11:30:31 2018
Timers Off: Wed Nov 21 11:33:18 2018

Wall Time:      167.10 seconds


-----------------------------------------------------------

***********************************************************

Host: HAL-9000

Timers On : Wed Nov 21 11:33:24 2018
Timers Off: Wed Nov 21 11:48:16 2018

Wall Time:      891.55 seconds


-----------------------------------------------------------

***********************************************************

Host: HAL-9000

Timers On : Wed Nov 21 11:48:22 2018
Timers Off: Wed Nov 21 11:51:06 2018

Wall Time:      164.44 seconds


-----------------------------------------------------------

***********************************************************
